lammps data file
250 atoms
1 atom types
125 bonds
1 bond types

0.000000e+00 1.880000e+00 xlo xhi 
0.000000e+00 1.880000e+00 ylo yhi 
0.000000e+00 1.880000e+00 zlo zhi 

Atoms

0 0 1 0.000000e+00 1.880000e-01 1.880000e-01 1.330000e-01
1 0 1 0.000000e+00 1.880000e-01 1.880000e-01 2.430000e-01
2 1 1 0.000000e+00 1.880000e-01 1.880000e-01 5.090000e-01
3 1 1 0.000000e+00 1.880000e-01 1.880000e-01 6.190000e-01
4 2 1 0.000000e+00 1.880000e-01 1.880000e-01 8.850000e-01
5 2 1 0.000000e+00 1.880000e-01 1.880000e-01 9.950000e-01
6 3 1 0.000000e+00 1.880000e-01 1.880000e-01 1.261000e+00
7 3 1 0.000000e+00 1.880000e-01 1.880000e-01 1.371000e+00
8 4 1 0.000000e+00 1.880000e-01 1.880000e-01 1.637000e+00
9 4 1 0.000000e+00 1.880000e-01 1.880000e-01 1.747000e+00
10 5 1 0.000000e+00 1.880000e-01 5.640000e-01 1.330000e-01
11 5 1 0.000000e+00 1.880000e-01 5.640000e-01 2.430000e-01
12 6 1 0.000000e+00 1.880000e-01 5.640000e-01 5.090000e-01
13 6 1 0.000000e+00 1.880000e-01 5.640000e-01 6.190000e-01
14 7 1 0.000000e+00 1.880000e-01 5.640000e-01 8.850000e-01
15 7 1 0.000000e+00 1.880000e-01 5.640000e-01 9.950000e-01
16 8 1 0.000000e+00 1.880000e-01 5.640000e-01 1.261000e+00
17 8 1 0.000000e+00 1.880000e-01 5.640000e-01 1.371000e+00
18 9 1 0.000000e+00 1.880000e-01 5.640000e-01 1.637000e+00
19 9 1 0.000000e+00 1.880000e-01 5.640000e-01 1.747000e+00
20 10 1 0.000000e+00 1.880000e-01 9.400000e-01 1.330000e-01
21 10 1 0.000000e+00 1.880000e-01 9.400000e-01 2.430000e-01
22 11 1 0.000000e+00 1.880000e-01 9.400000e-01 5.090000e-01
23 11 1 0.000000e+00 1.880000e-01 9.400000e-01 6.190000e-01
24 12 1 0.000000e+00 1.880000e-01 9.400000e-01 8.850000e-01
25 12 1 0.000000e+00 1.880000e-01 9.400000e-01 9.950000e-01
26 13 1 0.000000e+00 1.880000e-01 9.400000e-01 1.261000e+00
27 13 1 0.000000e+00 1.880000e-01 9.400000e-01 1.371000e+00
28 14 1 0.000000e+00 1.880000e-01 9.400000e-01 1.637000e+00
29 14 1 0.000000e+00 1.880000e-01 9.400000e-01 1.747000e+00
30 15 1 0.000000e+00 1.880000e-01 1.316000e+00 1.330000e-01
31 15 1 0.000000e+00 1.880000e-01 1.316000e+00 2.430000e-01
32 16 1 0.000000e+00 1.880000e-01 1.316000e+00 5.090000e-01
33 16 1 0.000000e+00 1.880000e-01 1.316000e+00 6.190000e-01
34 17 1 0.000000e+00 1.880000e-01 1.316000e+00 8.850000e-01
35 17 1 0.000000e+00 1.880000e-01 1.316000e+00 9.950000e-01
36 18 1 0.000000e+00 1.880000e-01 1.316000e+00 1.261000e+00
37 18 1 0.000000e+00 1.880000e-01 1.316000e+00 1.371000e+00
38 19 1 0.000000e+00 1.880000e-01 1.316000e+00 1.637000e+00
39 19 1 0.000000e+00 1.880000e-01 1.316000e+00 1.747000e+00
40 20 1 0.000000e+00 1.880000e-01 1.692000e+00 1.330000e-01
41 20 1 0.000000e+00 1.880000e-01 1.692000e+00 2.430000e-01
42 21 1 0.000000e+00 1.880000e-01 1.692000e+00 5.090000e-01
43 21 1 0.000000e+00 1.880000e-01 1.692000e+00 6.190000e-01
44 22 1 0.000000e+00 1.880000e-01 1.692000e+00 8.850000e-01
45 22 1 0.000000e+00 1.880000e-01 1.692000e+00 9.950000e-01
46 23 1 0.000000e+00 1.880000e-01 1.692000e+00 1.261000e+00
47 23 1 0.000000e+00 1.880000e-01 1.692000e+00 1.371000e+00
48 24 1 0.000000e+00 1.880000e-01 1.692000e+00 1.637000e+00
49 24 1 0.000000e+00 1.880000e-01 1.692000e+00 1.747000e+00
50 25 1 0.000000e+00 5.640000e-01 1.880000e-01 1.330000e-01
51 25 1 0.000000e+00 5.640000e-01 1.880000e-01 2.430000e-01
52 26 1 0.000000e+00 5.640000e-01 1.880000e-01 5.090000e-01
53 26 1 0.000000e+00 5.640000e-01 1.880000e-01 6.190000e-01
54 27 1 0.000000e+00 5.640000e-01 1.880000e-01 8.850000e-01
55 27 1 0.000000e+00 5.640000e-01 1.880000e-01 9.950000e-01
56 28 1 0.000000e+00 5.640000e-01 1.880000e-01 1.261000e+00
57 28 1 0.000000e+00 5.640000e-01 1.880000e-01 1.371000e+00
58 29 1 0.000000e+00 5.640000e-01 1.880000e-01 1.637000e+00
59 29 1 0.000000e+00 5.640000e-01 1.880000e-01 1.747000e+00
60 30 1 0.000000e+00 5.640000e-01 5.640000e-01 1.330000e-01
61 30 1 0.000000e+00 5.640000e-01 5.640000e-01 2.430000e-01
62 31 1 0.000000e+00 5.640000e-01 5.640000e-01 5.090000e-01
63 31 1 0.000000e+00 5.640000e-01 5.640000e-01 6.190000e-01
64 32 1 0.000000e+00 5.640000e-01 5.640000e-01 8.850000e-01
65 32 1 0.000000e+00 5.640000e-01 5.640000e-01 9.950000e-01
66 33 1 0.000000e+00 5.640000e-01 5.640000e-01 1.261000e+00
67 33 1 0.000000e+00 5.640000e-01 5.640000e-01 1.371000e+00
68 34 1 0.000000e+00 5.640000e-01 5.640000e-01 1.637000e+00
69 34 1 0.000000e+00 5.640000e-01 5.640000e-01 1.747000e+00
70 35 1 0.000000e+00 5.640000e-01 9.400000e-01 1.330000e-01
71 35 1 0.000000e+00 5.640000e-01 9.400000e-01 2.430000e-01
72 36 1 0.000000e+00 5.640000e-01 9.400000e-01 5.090000e-01
73 36 1 0.000000e+00 5.640000e-01 9.400000e-01 6.190000e-01
74 37 1 0.000000e+00 5.640000e-01 9.400000e-01 8.850000e-01
75 37 1 0.000000e+00 5.640000e-01 9.400000e-01 9.950000e-01
76 38 1 0.000000e+00 5.640000e-01 9.400000e-01 1.261000e+00
77 38 1 0.000000e+00 5.640000e-01 9.400000e-01 1.371000e+00
78 39 1 0.000000e+00 5.640000e-01 9.400000e-01 1.637000e+00
79 39 1 0.000000e+00 5.640000e-01 9.400000e-01 1.747000e+00
80 40 1 0.000000e+00 5.640000e-01 1.316000e+00 1.330000e-01
81 40 1 0.000000e+00 5.640000e-01 1.316000e+00 2.430000e-01
82 41 1 0.000000e+00 5.640000e-01 1.316000e+00 5.090000e-01
83 41 1 0.000000e+00 5.640000e-01 1.316000e+00 6.190000e-01
84 42 1 0.000000e+00 5.640000e-01 1.316000e+00 8.850000e-01
85 42 1 0.000000e+00 5.640000e-01 1.316000e+00 9.950000e-01
86 43 1 0.000000e+00 5.640000e-01 1.316000e+00 1.261000e+00
87 43 1 0.000000e+00 5.640000e-01 1.316000e+00 1.371000e+00
88 44 1 0.000000e+00 5.640000e-01 1.316000e+00 1.637000e+00
89 44 1 0.000000e+00 5.640000e-01 1.316000e+00 1.747000e+00
90 45 1 0.000000e+00 5.640000e-01 1.692000e+00 1.330000e-01
91 45 1 0.000000e+00 5.640000e-01 1.692000e+00 2.430000e-01
92 46 1 0.000000e+00 5.640000e-01 1.692000e+00 5.090000e-01
93 46 1 0.000000e+00 5.640000e-01 1.692000e+00 6.190000e-01
94 47 1 0.000000e+00 5.640000e-01 1.692000e+00 8.850000e-01
95 47 1 0.000000e+00 5.640000e-01 1.692000e+00 9.950000e-01
96 48 1 0.000000e+00 5.640000e-01 1.692000e+00 1.261000e+00
97 48 1 0.000000e+00 5.640000e-01 1.692000e+00 1.371000e+00
98 49 1 0.000000e+00 5.640000e-01 1.692000e+00 1.637000e+00
99 49 1 0.000000e+00 5.640000e-01 1.692000e+00 1.747000e+00
100 50 1 0.000000e+00 9.400000e-01 1.880000e-01 1.330000e-01
101 50 1 0.000000e+00 9.400000e-01 1.880000e-01 2.430000e-01
102 51 1 0.000000e+00 9.400000e-01 1.880000e-01 5.090000e-01
103 51 1 0.000000e+00 9.400000e-01 1.880000e-01 6.190000e-01
104 52 1 0.000000e+00 9.400000e-01 1.880000e-01 8.850000e-01
105 52 1 0.000000e+00 9.400000e-01 1.880000e-01 9.950000e-01
106 53 1 0.000000e+00 9.400000e-01 1.880000e-01 1.261000e+00
107 53 1 0.000000e+00 9.400000e-01 1.880000e-01 1.371000e+00
108 54 1 0.000000e+00 9.400000e-01 1.880000e-01 1.637000e+00
109 54 1 0.000000e+00 9.400000e-01 1.880000e-01 1.747000e+00
110 55 1 0.000000e+00 9.400000e-01 5.640000e-01 1.330000e-01
111 55 1 0.000000e+00 9.400000e-01 5.640000e-01 2.430000e-01
112 56 1 0.000000e+00 9.400000e-01 5.640000e-01 5.090000e-01
113 56 1 0.000000e+00 9.400000e-01 5.640000e-01 6.190000e-01
114 57 1 0.000000e+00 9.400000e-01 5.640000e-01 8.850000e-01
115 57 1 0.000000e+00 9.400000e-01 5.640000e-01 9.950000e-01
116 58 1 0.000000e+00 9.400000e-01 5.640000e-01 1.261000e+00
117 58 1 0.000000e+00 9.400000e-01 5.640000e-01 1.371000e+00
118 59 1 0.000000e+00 9.400000e-01 5.640000e-01 1.637000e+00
119 59 1 0.000000e+00 9.400000e-01 5.640000e-01 1.747000e+00
120 60 1 0.000000e+00 9.400000e-01 9.400000e-01 1.330000e-01
121 60 1 0.000000e+00 9.400000e-01 9.400000e-01 2.430000e-01
122 61 1 0.000000e+00 9.400000e-01 9.400000e-01 5.090000e-01
123 61 1 0.000000e+00 9.400000e-01 9.400000e-01 6.190000e-01
124 62 1 0.000000e+00 9.400000e-01 9.400000e-01 8.850000e-01
125 62 1 0.000000e+00 9.400000e-01 9.400000e-01 9.950000e-01
126 63 1 0.000000e+00 9.400000e-01 9.400000e-01 1.261000e+00
127 63 1 0.000000e+00 9.400000e-01 9.400000e-01 1.371000e+00
128 64 1 0.000000e+00 9.400000e-01 9.400000e-01 1.637000e+00
129 64 1 0.000000e+00 9.400000e-01 9.400000e-01 1.747000e+00
130 65 1 0.000000e+00 9.400000e-01 1.316000e+00 1.330000e-01
131 65 1 0.000000e+00 9.400000e-01 1.316000e+00 2.430000e-01
132 66 1 0.000000e+00 9.400000e-01 1.316000e+00 5.090000e-01
133 66 1 0.000000e+00 9.400000e-01 1.316000e+00 6.190000e-01
134 67 1 0.000000e+00 9.400000e-01 1.316000e+00 8.850000e-01
135 67 1 0.000000e+00 9.400000e-01 1.316000e+00 9.950000e-01
136 68 1 0.000000e+00 9.400000e-01 1.316000e+00 1.261000e+00
137 68 1 0.000000e+00 9.400000e-01 1.316000e+00 1.371000e+00
138 69 1 0.000000e+00 9.400000e-01 1.316000e+00 1.637000e+00
139 69 1 0.000000e+00 9.400000e-01 1.316000e+00 1.747000e+00
140 70 1 0.000000e+00 9.400000e-01 1.692000e+00 1.330000e-01
141 70 1 0.000000e+00 9.400000e-01 1.692000e+00 2.430000e-01
142 71 1 0.000000e+00 9.400000e-01 1.692000e+00 5.090000e-01
143 71 1 0.000000e+00 9.400000e-01 1.692000e+00 6.190000e-01
144 72 1 0.000000e+00 9.400000e-01 1.692000e+00 8.850000e-01
145 72 1 0.000000e+00 9.400000e-01 1.692000e+00 9.950000e-01
146 73 1 0.000000e+00 9.400000e-01 1.692000e+00 1.261000e+00
147 73 1 0.000000e+00 9.400000e-01 1.692000e+00 1.371000e+00
148 74 1 0.000000e+00 9.400000e-01 1.692000e+00 1.637000e+00
149 74 1 0.000000e+00 9.400000e-01 1.692000e+00 1.747000e+00
150 75 1 0.000000e+00 1.316000e+00 1.880000e-01 1.330000e-01
151 75 1 0.000000e+00 1.316000e+00 1.880000e-01 2.430000e-01
152 76 1 0.000000e+00 1.316000e+00 1.880000e-01 5.090000e-01
153 76 1 0.000000e+00 1.316000e+00 1.880000e-01 6.190000e-01
154 77 1 0.000000e+00 1.316000e+00 1.880000e-01 8.850000e-01
155 77 1 0.000000e+00 1.316000e+00 1.880000e-01 9.950000e-01
156 78 1 0.000000e+00 1.316000e+00 1.880000e-01 1.261000e+00
157 78 1 0.000000e+00 1.316000e+00 1.880000e-01 1.371000e+00
158 79 1 0.000000e+00 1.316000e+00 1.880000e-01 1.637000e+00
159 79 1 0.000000e+00 1.316000e+00 1.880000e-01 1.747000e+00
160 80 1 0.000000e+00 1.316000e+00 5.640000e-01 1.330000e-01
161 80 1 0.000000e+00 1.316000e+00 5.640000e-01 2.430000e-01
162 81 1 0.000000e+00 1.316000e+00 5.640000e-01 5.090000e-01
163 81 1 0.000000e+00 1.316000e+00 5.640000e-01 6.190000e-01
164 82 1 0.000000e+00 1.316000e+00 5.640000e-01 8.850000e-01
165 82 1 0.000000e+00 1.316000e+00 5.640000e-01 9.950000e-01
166 83 1 0.000000e+00 1.316000e+00 5.640000e-01 1.261000e+00
167 83 1 0.000000e+00 1.316000e+00 5.640000e-01 1.371000e+00
168 84 1 0.000000e+00 1.316000e+00 5.640000e-01 1.637000e+00
169 84 1 0.000000e+00 1.316000e+00 5.640000e-01 1.747000e+00
170 85 1 0.000000e+00 1.316000e+00 9.400000e-01 1.330000e-01
171 85 1 0.000000e+00 1.316000e+00 9.400000e-01 2.430000e-01
172 86 1 0.000000e+00 1.316000e+00 9.400000e-01 5.090000e-01
173 86 1 0.000000e+00 1.316000e+00 9.400000e-01 6.190000e-01
174 87 1 0.000000e+00 1.316000e+00 9.400000e-01 8.850000e-01
175 87 1 0.000000e+00 1.316000e+00 9.400000e-01 9.950000e-01
176 88 1 0.000000e+00 1.316000e+00 9.400000e-01 1.261000e+00
177 88 1 0.000000e+00 1.316000e+00 9.400000e-01 1.371000e+00
178 89 1 0.000000e+00 1.316000e+00 9.400000e-01 1.637000e+00
179 89 1 0.000000e+00 1.316000e+00 9.400000e-01 1.747000e+00
180 90 1 0.000000e+00 1.316000e+00 1.316000e+00 1.330000e-01
181 90 1 0.000000e+00 1.316000e+00 1.316000e+00 2.430000e-01
182 91 1 0.000000e+00 1.316000e+00 1.316000e+00 5.090000e-01
183 91 1 0.000000e+00 1.316000e+00 1.316000e+00 6.190000e-01
184 92 1 0.000000e+00 1.316000e+00 1.316000e+00 8.850000e-01
185 92 1 0.000000e+00 1.316000e+00 1.316000e+00 9.950000e-01
186 93 1 0.000000e+00 1.316000e+00 1.316000e+00 1.261000e+00
187 93 1 0.000000e+00 1.316000e+00 1.316000e+00 1.371000e+00
188 94 1 0.000000e+00 1.316000e+00 1.316000e+00 1.637000e+00
189 94 1 0.000000e+00 1.316000e+00 1.316000e+00 1.747000e+00
190 95 1 0.000000e+00 1.316000e+00 1.692000e+00 1.330000e-01
191 95 1 0.000000e+00 1.316000e+00 1.692000e+00 2.430000e-01
192 96 1 0.000000e+00 1.316000e+00 1.692000e+00 5.090000e-01
193 96 1 0.000000e+00 1.316000e+00 1.692000e+00 6.190000e-01
194 97 1 0.000000e+00 1.316000e+00 1.692000e+00 8.850000e-01
195 97 1 0.000000e+00 1.316000e+00 1.692000e+00 9.950000e-01
196 98 1 0.000000e+00 1.316000e+00 1.692000e+00 1.261000e+00
197 98 1 0.000000e+00 1.316000e+00 1.692000e+00 1.371000e+00
198 99 1 0.000000e+00 1.316000e+00 1.692000e+00 1.637000e+00
199 99 1 0.000000e+00 1.316000e+00 1.692000e+00 1.747000e+00
200 100 1 0.000000e+00 1.692000e+00 1.880000e-01 1.330000e-01
201 100 1 0.000000e+00 1.692000e+00 1.880000e-01 2.430000e-01
202 101 1 0.000000e+00 1.692000e+00 1.880000e-01 5.090000e-01
203 101 1 0.000000e+00 1.692000e+00 1.880000e-01 6.190000e-01
204 102 1 0.000000e+00 1.692000e+00 1.880000e-01 8.850000e-01
205 102 1 0.000000e+00 1.692000e+00 1.880000e-01 9.950000e-01
206 103 1 0.000000e+00 1.692000e+00 1.880000e-01 1.261000e+00
207 103 1 0.000000e+00 1.692000e+00 1.880000e-01 1.371000e+00
208 104 1 0.000000e+00 1.692000e+00 1.880000e-01 1.637000e+00
209 104 1 0.000000e+00 1.692000e+00 1.880000e-01 1.747000e+00
210 105 1 0.000000e+00 1.692000e+00 5.640000e-01 1.330000e-01
211 105 1 0.000000e+00 1.692000e+00 5.640000e-01 2.430000e-01
212 106 1 0.000000e+00 1.692000e+00 5.640000e-01 5.090000e-01
213 106 1 0.000000e+00 1.692000e+00 5.640000e-01 6.190000e-01
214 107 1 0.000000e+00 1.692000e+00 5.640000e-01 8.850000e-01
215 107 1 0.000000e+00 1.692000e+00 5.640000e-01 9.950000e-01
216 108 1 0.000000e+00 1.692000e+00 5.640000e-01 1.261000e+00
217 108 1 0.000000e+00 1.692000e+00 5.640000e-01 1.371000e+00
218 109 1 0.000000e+00 1.692000e+00 5.640000e-01 1.637000e+00
219 109 1 0.000000e+00 1.692000e+00 5.640000e-01 1.747000e+00
220 110 1 0.000000e+00 1.692000e+00 9.400000e-01 1.330000e-01
221 110 1 0.000000e+00 1.692000e+00 9.400000e-01 2.430000e-01
222 111 1 0.000000e+00 1.692000e+00 9.400000e-01 5.090000e-01
223 111 1 0.000000e+00 1.692000e+00 9.400000e-01 6.190000e-01
224 112 1 0.000000e+00 1.692000e+00 9.400000e-01 8.850000e-01
225 112 1 0.000000e+00 1.692000e+00 9.400000e-01 9.950000e-01
226 113 1 0.000000e+00 1.692000e+00 9.400000e-01 1.261000e+00
227 113 1 0.000000e+00 1.692000e+00 9.400000e-01 1.371000e+00
228 114 1 0.000000e+00 1.692000e+00 9.400000e-01 1.637000e+00
229 114 1 0.000000e+00 1.692000e+00 9.400000e-01 1.747000e+00
230 115 1 0.000000e+00 1.692000e+00 1.316000e+00 1.330000e-01
231 115 1 0.000000e+00 1.692000e+00 1.316000e+00 2.430000e-01
232 116 1 0.000000e+00 1.692000e+00 1.316000e+00 5.090000e-01
233 116 1 0.000000e+00 1.692000e+00 1.316000e+00 6.190000e-01
234 117 1 0.000000e+00 1.692000e+00 1.316000e+00 8.850000e-01
235 117 1 0.000000e+00 1.692000e+00 1.316000e+00 9.950000e-01
236 118 1 0.000000e+00 1.692000e+00 1.316000e+00 1.261000e+00
237 118 1 0.000000e+00 1.692000e+00 1.316000e+00 1.371000e+00
238 119 1 0.000000e+00 1.692000e+00 1.316000e+00 1.637000e+00
239 119 1 0.000000e+00 1.692000e+00 1.316000e+00 1.747000e+00
240 120 1 0.000000e+00 1.692000e+00 1.692000e+00 1.330000e-01
241 120 1 0.000000e+00 1.692000e+00 1.692000e+00 2.430000e-01
242 121 1 0.000000e+00 1.692000e+00 1.692000e+00 5.090000e-01
243 121 1 0.000000e+00 1.692000e+00 1.692000e+00 6.190000e-01
244 122 1 0.000000e+00 1.692000e+00 1.692000e+00 8.850000e-01
245 122 1 0.000000e+00 1.692000e+00 1.692000e+00 9.950000e-01
246 123 1 0.000000e+00 1.692000e+00 1.692000e+00 1.261000e+00
247 123 1 0.000000e+00 1.692000e+00 1.692000e+00 1.371000e+00
248 124 1 0.000000e+00 1.692000e+00 1.692000e+00 1.637000e+00
249 124 1 0.000000e+00 1.692000e+00 1.692000e+00 1.747000e+00

Bonds

0 1 0 1
1 1 2 3
2 1 4 5
3 1 6 7
4 1 8 9
5 1 10 11
6 1 12 13
7 1 14 15
8 1 16 17
9 1 18 19
10 1 20 21
11 1 22 23
12 1 24 25
13 1 26 27
14 1 28 29
15 1 30 31
16 1 32 33
17 1 34 35
18 1 36 37
19 1 38 39
20 1 40 41
21 1 42 43
22 1 44 45
23 1 46 47
24 1 48 49
25 1 50 51
26 1 52 53
27 1 54 55
28 1 56 57
29 1 58 59
30 1 60 61
31 1 62 63
32 1 64 65
33 1 66 67
34 1 68 69
35 1 70 71
36 1 72 73
37 1 74 75
38 1 76 77
39 1 78 79
40 1 80 81
41 1 82 83
42 1 84 85
43 1 86 87
44 1 88 89
45 1 90 91
46 1 92 93
47 1 94 95
48 1 96 97
49 1 98 99
50 1 100 101
51 1 102 103
52 1 104 105
53 1 106 107
54 1 108 109
55 1 110 111
56 1 112 113
57 1 114 115
58 1 116 117
59 1 118 119
60 1 120 121
61 1 122 123
62 1 124 125
63 1 126 127
64 1 128 129
65 1 130 131
66 1 132 133
67 1 134 135
68 1 136 137
69 1 138 139
70 1 140 141
71 1 142 143
72 1 144 145
73 1 146 147
74 1 148 149
75 1 150 151
76 1 152 153
77 1 154 155
78 1 156 157
79 1 158 159
80 1 160 161
81 1 162 163
82 1 164 165
83 1 166 167
84 1 168 169
85 1 170 171
86 1 172 173
87 1 174 175
88 1 176 177
89 1 178 179
90 1 180 181
91 1 182 183
92 1 184 185
93 1 186 187
94 1 188 189
95 1 190 191
96 1 192 193
97 1 194 195
98 1 196 197
99 1 198 199
100 1 200 201
101 1 202 203
102 1 204 205
103 1 206 207
104 1 208 209
105 1 210 211
106 1 212 213
107 1 214 215
108 1 216 217
109 1 218 219
110 1 220 221
111 1 222 223
112 1 224 225
113 1 226 227
114 1 228 229
115 1 230 231
116 1 232 233
117 1 234 235
118 1 236 237
119 1 238 239
120 1 240 241
121 1 242 243
122 1 244 245
123 1 246 247
124 1 248 249
